Created on Thu Sep 05 11:43:54 2024 

        1144 atoms
        1382 bonds
        3052 angles
        2640 dihedrals
        1656 impropers

          11 atom types
          10 bond types
          17 angle types
           3 dihedral types
           1 improper types
           0.000000  39.896858 xlo xhi
           0.000000  34.555104 ylo yhi
           0.000000  32.989043 zlo zhi
         -19.950196  -0.007635   0.002237 xy xz yz

Masses

    1    91.224000000 # Zr8f4
    2     1.007940000 # H_
    3    12.010700000 # C_R
    4    15.999400000 # O_3_f
    5    15.999400000 # O_2
    6    15.999400000 # O_3
    7   101.070000000 # Ru4f2
    8    14.006700000 # N_3
    9     1.007940000 # H_
   10     1.007940000 # H_
   11    15.999400000 # O_3

Bond Coeffs

    1      199.959824        2.410484  # Zr8f4 O_2
    2      194.102688        2.434490  # Zr8f4 O_3
    3      357.440381        1.081418  # H_ C_R
    4      602.435128        0.966432  # H_ O_3_f
    5      559.995206        0.990254  # H_ O_3
    6      462.655054        1.379256  # C_R C_R
    7      391.669513        1.458000  # C_R C_R
    8      714.557442        1.269010  # C_R O_2
    9      377.050484        1.967604  # Ru4f2 N_3
   10      527.945261        1.044419  # N_3 H_

Angle Coeffs

    1                      fourier       76.804805        0.343737        0.374972        0.281246 # O_2 Zr8f4 O_2
    2                      fourier       75.665309        0.343737        0.374972        0.281246 # O_3_f Zr8f4 O_3
    3              cosine/periodic       57.289016              -1               3 # H_ C_R C_R
    4              cosine/periodic      111.297508              -1               3 # C_R C_R C_R
    5              cosine/periodic      102.183280              -1               3 # C_R C_R C_R
    6              cosine/periodic      137.714246              -1               3 # C_R C_R O_2
    7              cosine/periodic      206.778426              -1               3 # O_2 C_R O_2
    8                      fourier      195.233589        0.343737        0.374972        0.281246 # Zr8f4 O_3_f Zr8f4
    9              cosine/periodic       79.383325              -1               3 # Zr8f4 O_2 C_R
   10              cosine/periodic       34.181014              -1               3 # Zr8f4 O_2 H_
   11              cosine/periodic       44.863234              -1               3 # H_ O_2 H_
   12                      fourier       78.498356        0.343737        0.374972        0.281246 # Zr8f4 O_3_f H_
   13                      fourier       81.436741        0.300235        0.267331        0.266745 # Zr8f4 O_3 H_
   14              cosine/periodic      149.618039               1               4 # N_3 Ru4f2 N_3
   15                      fourier      127.548232        0.317506        0.313225        0.272502 # Ru4f2 N_3 H_
   16                      fourier       97.017167        0.317506        0.313225        0.272502 # H_ N_3 H_
   17                      fourier      120.499822        0.300235        0.267331        0.266745 # H_ O_3 H_

Dihedral Coeffs

    1        3.368555              -1               2 # H_ C_R C_R C_R
    2        1.250000              -1               2 # C_R C_R C_R O_2
    3        6.737110              -1               2 # C_R C_R O_2 Zr8f4

Improper Coeffs

    1        2.000000        1.000000       -1.000000        0.000000               0 # H_ C_R C_R C_R

Pair Coeffs

    1        0.069000        2.783168 # Zr8f4 Zr8f4
    2        0.044000        2.571134 # H_ H_
    3        0.105000        3.430851 # C_R C_R
    4        0.060000        3.118146 # O_3_f O_3_f
    5        0.060000        3.118146 # O_2 O_2
    6        0.060000        3.118146 # O_3 O_3
    7        0.056000        2.639733 # Ru4f2 Ru4f2
    8        0.069000        3.260689 # N_3 N_3
    9        0.044000        2.571134 # H_ H_
   10        0.044000        2.571134 # H_ H_
   11        0.060000        3.118146 # O_3 O_3

Atoms

       1      444        1     0.00000   19.94738    2.47283    0.00068
       2      444        1     0.00000    1.84776   34.52815   14.78947
       3      444        1     0.00000   21.65848    0.00790    1.85098
       4      444        1     0.00000   -1.85260   34.52519    1.70710
       5      444        1     0.00000    0.00261   32.05369    0.00233
       6      444        1     0.00000   18.23751    0.00414   14.64621
       7      444        1     0.00000   -7.83370   18.51129   16.48604
       8      444        1     0.00000   30.82017   15.65039   14.79036
       9      444        1     0.00000   -9.10470   15.79976    1.85073
      10      444        1     0.00000   28.97946   18.86468    1.70611
      11      444        1     0.00000   27.76083   16.02068    0.00980
      12      444        1     0.00000   29.06841   18.75073   14.64431
      13      444        1     0.00000    7.82582   18.50875    0.00937
      14      444        1     0.00000    9.06854   15.64663    1.70309
      15      444        1     0.00000    9.09502   15.79907   14.64273
      16      444        1     0.00000   10.90788   18.86346   14.78630
      17      444        1     0.00000   12.12696   16.01858   16.48138
      18      444        1     0.00000   10.82159   18.74648    1.84815
      19      444        2     0.00000    1.87557   28.68279   14.54642
      20      444        2     0.00000   18.25900    5.85827   14.36773
      21      444        2     0.00000   -1.87126   28.65874   14.52265
      22      444        2     0.00000   21.61292    5.85993   14.40227
      23      444        2     0.00000    4.11171   31.59674   12.32906
      24      444        2     0.00000   15.94834    2.95308   12.21634
      25      444        2     0.00000   -4.07273   31.59785   12.30316
      26      444        2     0.00000   23.96419    2.97689   12.26378
      27      444        2     0.00000    5.08982   29.78696   10.91843
      28      444        2     0.00000   14.87216    4.77643   10.89367
      29      444        2     0.00000   -5.08555   29.79864   10.90524
      30      444        2     0.00000   25.00081    4.80767   10.91998
      31      444        2     0.00000    2.83431   26.86075   13.13155
      32      444        2     0.00000   17.19231    7.69524   13.04666
      33      444        2     0.00000   -2.86465   26.84696   13.11923
      34      444        2     0.00000   22.63941    7.70412   13.05851
      35      444        2     0.00000   18.27834    5.85740    2.09436
      36      444        2     0.00000    1.89244   28.66895    1.96534
      37      444        2     0.00000   21.62935    5.86079    2.12728
      38      444        2     0.00000   -1.88379   28.67821    1.94221
      39      444        2     0.00000   15.92264    2.97558    4.22916
      40      444        2     0.00000    4.07144   31.61026    4.20445
      41      444        2     0.00000   23.94946    2.95800    4.27188
      42      444        2     0.00000   -4.11251   31.59374    4.16541
      43      444        2     0.00000   14.88430    4.80665    5.57122
      44      444        2     0.00000    5.09067   29.80944    5.59666
      45      444        2     0.00000   25.02351    4.78236    5.59516
      46      444        2     0.00000   -5.09170   29.78398    5.57541
      47      444        2     0.00000   17.24997    7.70215    3.43619
      48      444        2     0.00000    2.89137   26.85597    3.36328
      49      444        2     0.00000   22.69400    7.69859    3.44879
      50      444        2     0.00000   -2.84494   26.85621    3.35548
      51      444        2     0.00000   17.09607    1.93672   16.44746
      52      444        2     0.00000    0.04216   32.60736   13.63642
      53      444        2     0.00000    4.24277   33.62983    1.62771
      54      444        2     0.00000    4.03280   34.51722    0.27100
      55      444        2     0.00000   -4.40662   33.83305    1.61155
      56      444        2     0.00000   19.67835    0.02356    4.03298
      57      444        2     0.00000   21.55791    0.70305    4.40351
      58      444        2     0.00000   18.31692    0.90802    4.23466
      59      444        2     0.00000   22.79578    1.94100    0.04830
      60      444        2     0.00000   -0.04336   32.60822    2.86150
      61      444        2     0.00000    4.40215   33.83923   14.88414
      62      444        2     0.00000   -4.03704   34.51076   16.22474
      63      444        2     0.00000   -4.24302   33.62012   14.86920
      64      444        2     0.00000   21.57465    0.90998   12.26129
      65      444        2     0.00000   18.33388    0.69738   12.09400
      66      444        2     0.00000   20.21606    0.02210   12.46343
      67      444        2     0.00000   25.76765   12.70002   14.56791
      68      444        2     0.00000   -5.74265   21.64156   14.35391
      69      444        2     0.00000   23.86769   15.94744   14.52890
      70      444        2     0.00000   -4.07776   18.75859   14.39634
      71      444        2     0.00000   29.40413   12.23023   12.33968
      72      444        2     0.00000   -9.41342   22.21413   12.20793
      73      444        2     0.00000   25.33847   19.31109   12.30778
      74      444        2     0.00000   -5.37679   15.27236   12.25879
      75      444        2     0.00000   28.32339   10.48241   10.92600
      76      444        2     0.00000   -8.36573   24.05980   10.89269
      77      444        2     0.00000   23.27453   19.30263   10.90811
      78      444        2     0.00000   -3.27206   15.30126   10.91693
      79      444        2     0.00000   24.66700   10.96174   13.15087
      80      444        2     0.00000   -4.67788   23.48429   13.03918
      81      444        2     0.00000   21.80202   15.91614   13.12375
      82      444        2     0.00000   -1.96806   18.80494   13.05281
      83      444        2     0.00000   -5.72553   21.66028    2.08725
      84      444        2     0.00000   25.77607   12.70276    1.97796
      85      444        2     0.00000   -4.07865   18.78813    2.12426
      86      444        2     0.00000   23.88570   15.98118    1.95559
      87      444        2     0.00000   -9.40319   22.24690    4.21811
      88      444        2     0.00000   29.41581   12.27554    4.20962
      89      444        2     0.00000   -5.37427   15.28878    4.24223
      90      444        2     0.00000   25.33015   19.35156    4.18415
      91      444        2     0.00000   -8.34234   24.05996    5.56655
      92      444        2     0.00000   28.36392   10.49387    5.60278
      93      444        2     0.00000   -3.25460   15.29402    5.56266
      94      444        2     0.00000   23.27331   19.31288    5.59488
      95      444        2     0.00000   -4.64780   23.47182    3.43508
      96      444        2     0.00000   24.70395   10.93208    3.37590
      97      444        2     0.00000   -1.95517   18.81145    3.44693
      98      444        2     0.00000   21.82556   15.92256    3.36840
      99      444        2     0.00000   -9.72009   20.70864   16.43809
     100      444        2     0.00000   28.25107   16.25388   13.64150
     101      444        2     0.00000   31.24938   13.13717    1.63358
     102      444        2     0.00000   31.90956   13.75914    0.27333
     103      444        2     0.00000   27.10104   20.72747    1.61079
     104      444        2     0.00000  -10.07341   17.52749    4.03237
     105      444        2     0.00000   -8.54363   16.24089    4.40001
     106      444        2     0.00000   -9.98784   19.14931    4.23063
     107      444        2     0.00000   -6.86707   15.77655    0.04264
     108      444        2     0.00000   28.22623   16.34293    2.86747
     109      444        2     0.00000   31.49824   13.09339   14.88972
     110      444        2     0.00000   27.86829   20.74287   16.22256
     111      444        2     0.00000   26.99134   20.47480   14.86955
     112      444        2     0.00000   -8.38030   16.30676   12.26058
     113      444        2     0.00000  -10.18413   19.00792   12.09047
     114      444        2     0.00000   -9.82800   17.04087   12.46346
     115      444        2     0.00000   14.12048   12.69671    1.92410
     116      444        2     0.00000    5.74524   21.65275    2.13548
     117      444        2     0.00000   16.01981   15.94438    1.95866
     118      444        2     0.00000    4.06957   18.75399    2.09998
     119      444        2     0.00000   10.48594   12.22982    4.15624
     120      444        2     0.00000    9.41399   22.20675    4.28970
     121      444        2     0.00000   14.54833   19.30549    4.18314
     122      444        2     0.00000    5.36780   15.26576    4.23451
     123      444        2     0.00000   11.56822   10.48440    5.57170
     124      444        2     0.00000    8.37154   24.05433    5.60578
     125      444        2     0.00000   16.61219   19.29612    5.58302
     126      444        2     0.00000    3.26386   15.29519    5.57810
     127      444        2     0.00000   15.22279   10.96055    3.34319
     128      444        2     0.00000    4.68652   23.49936    3.44943
     129      444        2     0.00000   18.08557   15.91258    3.36346
     130      444        2     0.00000    1.96051   18.80059    3.44435
     131      444        2     0.00000    5.71798   21.66326   14.40899
     132      444        2     0.00000   14.11106   12.70261   14.51439
     133      444        2     0.00000    4.06978   18.78893   14.37506
     134      444        2     0.00000   16.00491   15.98452   14.53751
     135      444        2     0.00000    9.39442   22.24627   12.27466
     136      444        2     0.00000   10.47211   12.27194   12.28200
     137      444        2     0.00000    5.36518   15.29264   12.25192
     138      444        2     0.00000   14.55528   19.35142   12.30747
     139      444        2     0.00000    8.33373   24.05918   10.92650
     140      444        2     0.00000   11.52474   10.48897   10.89125
     141      444        2     0.00000    3.24545   15.30008   10.93145
     142      444        2     0.00000   16.61150   19.31469   10.89607
     143      444        2     0.00000    4.64055   23.47545   13.06160
     144      444        2     0.00000   15.18432   10.93119   13.11836
     145      444        2     0.00000    1.94665   18.81503   13.05137
     146      444        2     0.00000   18.06408   15.92713   13.12344
     147      444        2     0.00000    9.71188   20.70511    0.05534
     148      444        2     0.00000   11.63824   16.24894    2.85025
     149      444        2     0.00000    8.63781   13.13654   14.85950
     150      444        2     0.00000    7.97807   13.75818   16.22010
     151      444        2     0.00000   12.78603   20.72647   14.88088
     152      444        2     0.00000   10.06186   17.52626   12.46062
     153      444        2     0.00000    8.53180   16.23975   12.09382
     154      444        2     0.00000    9.97650   19.14795   12.26239
     155      444        2     0.00000    6.85840   15.77614   16.45192
     156      444        2     0.00000   11.65996   16.34124   13.62365
     157      444        2     0.00000    8.38923   13.08951    1.60376
     158      444        2     0.00000   12.01990   20.73961    0.26922
     159      444        2     0.00000   12.89793   20.47176    1.62149
     160      444        2     0.00000    8.37435   16.30349    4.23358
     161      444        2     0.00000   10.18116   19.00201    4.40308
     162      444        2     0.00000    9.82272   17.03656    4.02920
     163      444        2     0.00000   23.33766   17.34426    9.47051
     164      444        2     0.00000   14.76487    8.50882    3.62381
     165      444        2     0.00000   -3.35919   28.89921    9.45926
     166      444        2     0.00000    0.00602   17.08623    3.63549
     167      444        2     0.00000   13.17410   11.53427    9.45336
     168      444        2     0.00000   25.19247    8.48311    3.64804
     169      444        2     0.00000   -3.40301   17.30763    9.46104
     170      444        2     0.00000    5.25777   26.05366    3.64412
     171      444        2     0.00000   23.19064    5.72808    9.47388
     172      444        2     0.00000   19.95072   17.59432    3.63500
     173      444        2     0.00000    6.62949   22.95249    9.47935
     174      444        2     0.00000   -5.20253   26.02888    3.62622
     175      444        2     0.00000   16.69727    5.72529    7.01834
     176      444        2     0.00000   19.93612   17.60051   12.85524
     177      444        2     0.00000    3.39482   17.30464    7.03444
     178      444        2     0.00000   -5.23648   26.04191   12.84875
     179      444        2     0.00000   26.71826   11.53615    7.04346
     180      444        2     0.00000   14.69597    8.47727   12.84653
     181      444        2     0.00000    3.36608   28.90551    7.03128
     182      444        2     0.00000   -0.01396   17.09304   12.86056
     183      444        2     0.00000   16.54806   17.34106    7.02037
     184      444        2     0.00000   25.12293    8.50879   12.87059
     185      444        2     0.00000   -6.63906   22.95312    7.01482
     186      444        2     0.00000    5.19323   26.03071   12.86701
     187      444        2     0.00000   -3.39711   17.30598    7.01972
     188      444        2     0.00000   23.21017    5.72028    7.03087
     189      444        2     0.00000    6.64796   22.95972    7.03653
     190      444        2     0.00000   23.34150   17.34513    7.02988
     191      444        2     0.00000   -3.35189   28.89635    7.02027
     192      444        2     0.00000   13.19601   11.54496    7.01487
     193      444        2     0.00000    3.35233   28.90080    9.47000
     194      444        2     0.00000   16.54448   17.34616    9.46098
     195      444        2     0.00000   -6.65106   22.95836    9.45771
     196      444        2     0.00000   16.67879    5.71640    9.46108
     197      444        2     0.00000    3.38889   17.30843    9.47574
     198      444        2     0.00000   26.69595   11.54516    9.48188
     199      444        3     0.00000    2.58634   28.90804   13.75199
     200      444        3     0.00000   17.51474    5.63759   13.60321
     201      444        3     0.00000   -2.58287   28.89245   13.73139
     202      444        3     0.00000   22.35579    5.64592   13.63452
     203      444        3     0.00000    2.93732   30.24603   13.52285
     204      444        3     0.00000   17.18003    4.29852   13.35726
     205      444        3     0.00000   -2.91261   30.23508   13.49743
     206      444        3     0.00000   22.71421    4.31121   13.39893
     207      444        3     0.00000    3.84214   30.55437   12.49739
     208      444        3     0.00000   16.22147    3.99527   12.38029
     209      444        3     0.00000   -3.82030   30.55205   12.47685
     210      444        3     0.00000   23.67058    4.01507   12.41764
     211      444        3     0.00000    4.37480   29.54289   11.70479
     212      444        3     0.00000   15.62624    5.01411   11.64488
     213      444        3     0.00000   -4.37181   29.54596   11.69010
     214      444        3     0.00000   24.24450    5.03772   11.67129
     215      444        3     0.00000    4.01840   28.19819   11.91853
     216      444        3     0.00000   15.97249    6.35953   11.86857
     217      444        3     0.00000   -4.03240   28.19712   11.90461
     218      444        3     0.00000   23.87783    6.37899   11.88787
     219      444        3     0.00000    3.12458   27.89891   12.96306
     220      444        3     0.00000   16.91391    6.65508   12.87010
     221      444        3     0.00000   -3.14040   27.88864   12.94825
     222      444        3     0.00000   22.93396    6.66728   12.88887
     223      444        3     0.00000   17.53438    5.64384    2.86117
     224      444        3     0.00000    2.60038   28.90266    2.75988
     225      444        3     0.00000   22.37512    5.64076    2.89062
     226      444        3     0.00000   -2.59371   28.90377    2.73727
     227      444        3     0.00000   17.17520    4.30927    3.09638
     228      444        3     0.00000    2.92156   30.24594    3.00164
     229      444        3     0.00000   22.71279    4.30201    3.13472
     230      444        3     0.00000   -2.94116   30.24228    2.96941
     231      444        3     0.00000   16.21698    4.01368    4.07590
     232      444        3     0.00000    3.82523   30.56381    4.02555
     233      444        3     0.00000   23.67386    3.99979    4.10949
     234      444        3     0.00000   -3.84505   30.55103    3.99560
     235      444        3     0.00000   15.64212    5.03642    4.82137
     236      444        3     0.00000    4.38025   29.55683    4.80881
     237      444        3     0.00000   24.26774    5.01915    4.84535
     238      444        3     0.00000   -4.37823   29.53962    4.78775
     239      444        3     0.00000   16.00960    6.37749    4.60530
     240      444        3     0.00000    4.04786   28.20716    4.58764
     241      444        3     0.00000   23.91763    6.36395    4.62434
     242      444        3     0.00000   -4.02414   28.19465    4.57226
     243      444        3     0.00000   16.95481    6.66541    3.60542
     244      444        3     0.00000    3.16120   27.89834    3.53956
     245      444        3     0.00000   22.97464    6.65884    3.62419
     246      444        3     0.00000   -3.13313   27.89467    3.52544
     247      444        3     0.00000   -2.25743   31.31304   14.29278
     248      444        3     0.00000    2.30976   31.32645   14.33578
     249      444        3     0.00000    2.26187   31.32173    2.20764
     250      444        3     0.00000   22.05044    3.21385    2.36053
     251      444        3     0.00000   17.80531    3.21889    2.29962
     252      444        3     0.00000   17.84173    3.21144   14.13371
     253      444        3     0.00000   -2.31029   31.32304    2.15992
     254      444        3     0.00000   22.08465    3.22129   14.19627
     255      444        3     0.00000   26.31663   12.19965   13.77091
     256      444        3     0.00000   -6.30381   22.18105   13.59163
     257      444        3     0.00000   23.72008   16.68116   13.73697
     258      444        3     0.00000   -3.88668   18.00890   13.62927
     259      444        3     0.00000   27.64971   12.56719   13.53832
     260      444        3     0.00000   -7.63290   21.80825   13.34540
     261      444        3     0.00000   24.72411   17.63166   13.50375
     262      444        3     0.00000   -4.85796   17.02583   13.39304
     263      444        3     0.00000   28.36733   11.94098   12.50956
     264      444        3     0.00000   -8.37294   22.49365   12.37206
     265      444        3     0.00000   24.55322   18.57563   12.48119
     266      444        3     0.00000   -4.62918   16.05024   12.41305
     267      444        3     0.00000   27.75614   10.97677   11.71527
     268      444        3     0.00000   -7.78464   23.51951   11.64093
     269      444        3     0.00000   23.40684   18.55809   11.69386
     270      444        3     0.00000   -3.45616   16.07113   11.66707
     271      444        3     0.00000   26.41398   10.61196   11.93047
     272      444        3     0.00000   -6.44448   23.88550   11.86505
     273      444        3     0.00000   22.40074   17.59820   11.90954
     274      444        3     0.00000   -2.48511   17.06657   11.88198
     275      444        3     0.00000   25.71053   11.23070   12.98043
     276      444        3     0.00000   -5.71917   23.21046   12.86235
     277      444        3     0.00000   22.57215   16.66998   12.95305
     278      444        3     0.00000   -2.71334   18.02613   12.88371
     279      444        3     0.00000   -6.28509   22.19497    2.85420
     280      444        3     0.00000   26.33280   12.20412    2.77072
     281      444        3     0.00000   -3.88278   18.02956    2.88144
     282      444        3     0.00000   23.73377   16.70900    2.75200
     283      444        3     0.00000   -7.62014   21.83537    3.08629
     284      444        3     0.00000   27.65807   12.59388    3.01046
     285      444        3     0.00000   -4.85714   17.04987    3.11949
     286      444        3     0.00000   24.72801   17.67006    2.98444
     287      444        3     0.00000   -8.35745   22.51369    4.06681
     288      444        3     0.00000   28.38549   11.96792    4.03245
     289      444        3     0.00000   -4.62224   16.06173    4.08561
     290      444        3     0.00000   24.55340   18.60654    4.01343
     291      444        3     0.00000   -7.76208   23.52188    4.81609
     292      444        3     0.00000   27.79002   10.98508    4.81635
     293      444        3     0.00000   -3.44196   16.07032    4.81991
     294      444        3     0.00000   23.41053   18.57300    4.80560
     295      444        3     0.00000   -6.41746   23.87789    4.60291
     296      444        3     0.00000   26.45390   10.60164    4.59673
     297      444        3     0.00000   -2.47042   17.06566    4.60745
     298      444        3     0.00000   22.41167   17.60583    4.58724
     299      444        3     0.00000   -5.69303   23.20690    3.60235
     300      444        3     0.00000   25.74251   11.21721    3.55054
     301      444        3     0.00000   -2.70188   18.03383    3.61514
     302      444        3     0.00000   22.58923   16.68272    3.54024
     303      444        3     0.00000   25.98365   17.60099   14.30154
     304      444        3     0.00000   28.27360   13.65134   14.34872
     305      444        3     0.00000   28.26118   13.70246    2.21708
     306      444        3     0.00000   -6.13167   17.06793    2.34818
     307      444        3     0.00000   -8.24809   20.74403    2.28845
     308      444        3     0.00000   -8.24744   20.69369   14.12129
     309      444        3     0.00000   25.97721   17.65936    2.17063
     310      444        3     0.00000   -6.11813   17.02291   14.18854
     311      444        3     0.00000   13.57250   12.19779    2.72273
     312      444        3     0.00000    6.30736   22.18879    2.89946
     313      444        3     0.00000   16.16731   16.67710    2.75148
     314      444        3     0.00000    3.87845   18.00406    2.86676
     315      444        3     0.00000   12.23945   12.56530    2.95582
     316      444        3     0.00000    7.63394   21.80939    3.14834
     317      444        3     0.00000   15.16326   17.62707    2.98599
     318      444        3     0.00000    4.84949   17.02050    3.10201
     319      444        3     0.00000   11.52283   11.94086    3.98631
     320      444        3     0.00000    8.37510   22.49085    4.12370
     321      444        3     0.00000   15.33378   18.57043    4.00927
     322      444        3     0.00000    4.62039   16.04404    4.08124
     323      444        3     0.00000   12.13490   10.97803    4.78158
     324      444        3     0.00000    7.78955   23.51795    4.85541
     325      444        3     0.00000   16.48005   18.55241    4.79644
     326      444        3     0.00000    3.44776   16.06531    4.82808
     327      444        3     0.00000   13.47674   10.61263    4.56530
     328      444        3     0.00000    6.45172   23.89043    4.62871
     329      444        3     0.00000   17.48625   17.59297    4.57985
     330      444        3     0.00000    2.47719   17.06152    4.61419
     331      444        3     0.00000   14.17945   11.23020    3.51419
     332      444        3     0.00000    5.72610   23.22034    3.62845
     333      444        3     0.00000   17.31520   16.66589    3.53516
     334      444        3     0.00000    2.70538   18.02132    3.61270
     335      444        3     0.00000    6.27733   22.19743   13.64151
     336      444        3     0.00000   13.55475   12.20310   13.72189
     337      444        3     0.00000    3.87390   18.03164   13.61662
     338      444        3     0.00000   16.15539   16.71192   13.74041
     339      444        3     0.00000    7.61185   21.83628   13.40848
     340      444        3     0.00000   12.22953   12.59245   13.48142
     341      444        3     0.00000    4.84801   17.05219   13.37696
     342      444        3     0.00000   15.15963   17.67119   13.50751
     343      444        3     0.00000    8.34900   22.51373   12.42697
     344      444        3     0.00000   11.50252   11.96500   12.45990
     345      444        3     0.00000    4.61319   16.06547   12.40942
     346      444        3     0.00000   15.33299   18.60746   12.47822
     347      444        3     0.00000    7.75358   23.52200   11.67771
     348      444        3     0.00000   12.09841   10.98102   11.67743
     349      444        3     0.00000    3.43309   16.07538   11.67512
     350      444        3     0.00000   16.47554   18.57485   11.68559
     351      444        3     0.00000    6.40943   23.87939   11.89173
     352      444        3     0.00000   13.43450   10.59792   11.89804
     353      444        3     0.00000    2.46194   17.07085   11.88861
     354      444        3     0.00000   17.47514   17.60853   11.90354
     355      444        3     0.00000    5.68538   23.20964   12.89352
     356      444        3     0.00000   14.14559   11.21549   12.94330
     357      444        3     0.00000    2.69318   18.03743   12.88257
     358      444        3     0.00000   17.29942   16.68623   12.95145
     359      444        3     0.00000   13.90432   17.59678    2.18806
     360      444        3     0.00000   11.61474   13.64775    2.14388
     361      444        3     0.00000   11.62653   13.70131   14.27454